<?xml version="1.0"?>
<VTKFile type="UnstructuredGrid"  version="0.1"  >
<UnstructuredGrid>
<Piece  NumberOfPoints="2426" NumberOfCells="4588">
<Points>
<DataArray  type="Float64"  NumberOfComponents="3"  format="ascii">-3 0 0  -3 4 0  -1 2 0  0 5 0  1 2 0  3 4 0  3 0 0  -3 0.09999999999981146 0  -3 0.1999999999995986 0  -3 0.2999999999994113 0  -3 0.3999999999992587 0  -3 0.4999999999990951 0  -3 0.5999999999988144 0  -3 0.6999999999985229 0  -3 0.7999999999982315 0  -3 0.89999999999794 0  -3 0.9999999999976484 0  -3 1.099999999997357 0  -3 1.199999999997066 0  -3 1.299999999996774 0  -3 1.399999999996483 0  -3 1.499999999996191 0  -3 1.5999999999959 0  -3 1.699999999995608 0  -3 1.799999999995317 0  -3 1.899999999995025 0  -3 1.999999999994777 0  -3 2.099999999994997 0  -3 2.19999999999526 0  -3 2.299999999995524 0  -3 2.399999999995787 0  -3 2.49999999999605 0  -3 2.599999999996314 0  -3 2.699999999996577 0  -3 2.79999999999684 0  -3 2.899999999997104 0  -3 2.999999999997367 0  -3 3.09999999999763 0  -3 3.199999999997893 0  -3 3.299999999998157 0  -3 3.39999999999842 0  -3 3.499999999998683 0  -3 3.599999999998947 0  -3 3.69999999999921 0  -3 3.799999999999474 0  -3 3.899999999999737 0  -2.931034482758812 3.931034482758812 0  -2.862068965517624 3.862068965517624 0  -2.793103448276436 3.793103448276436 0  -2.724137931035248 3.724137931035248 0  -2.65517241379406 3.65517241379406 0  -2.586206896552872 3.586206896552872 0  -2.517241379311684 3.517241379311684 0  -2.448275862070496 3.448275862070496 0  -2.379310344829308 3.379310344829308 0  -2.31034482758812 3.31034482758812 0  -2.241379310346932 3.241379310346932 0  -2.172413793105744 3.172413793105744 0  -2.103448275864556 3.103448275864556 0  -2.034482758623368 3.034482758623368 0  -1.965517241381988 2.965517241381988 0  -1.896551724140417 2.896551724140418 0  -1.827586206898846 2.827586206898847 0  -1.758620689657276 2.758620689657276 0  -1.689655172415705 2.689655172415705 0  -1.620689655174135 2.620689655174135 0  -1.551724137932564 2.551724137932564 0  -1.482758620690994 2.482758620690993 0  -1.413793103449423 2.413793103449423 0  -1.344827586207852 2.344827586207852 0  -1.275862068966282 2.275862068966282 0  -1.206896551724711 2.206896551724712 0  -1.137931034483141 2.137931034483141 0  -1.06896551724157 2.06896551724157 0  -0.9687500000003595 2.093749999998922 0  -0.9375000000006929 2.187499999997921 0  -0.906250000000662 2.281249999998014 0  -0.8750000000006333 2.3749999999981 0  -0.8437500000009992 2.468749999997002 0  -0.8125000000011332 2.5624999999966 0  -0.7812500000011111 2.656249999996667 0  -0.7500000000010889 2.749999999996733 0  -0.7187500000010667 2.8437499999968 0  -0.6875000000010445 2.937499999996867 0  -0.6562500000010224 3.031249999996933 0  -0.6250000000010003 3.124999999996999 0  -0.5937500000009781 3.218749999997065 0  -0.5625000000009559 3.312499999997132 0  -0.5312500000009337 3.406249999997199 0  -0.5000000000009095 3.499999999997272 0  -0.4687500000008548 3.593749999997436 0  -0.4375000000007978 3.687499999997606 0  -0.4062500000007407 3.781249999997778 0  -0.3750000000006838 3.874999999997949 0  -0.3437500000006268 3.96874999999812 0  -0.3125000000005699 4.06249999999829 0  -0.2812500000005128 4.156249999998462 0  -0.2500000000004559 4.249999999998632 0  -0.2187500000003988 4.343749999998804 0  -0.1875000000003418 4.437499999998975 0  -0.1562500000002849 4.531249999999146 0  -0.1250000000002279 4.624999999999316 0  -0.09375000000017097 4.718749999999487 0  -0.06250000000011391 4.812499999999658 0  -0.03125000000005695 4.906249999999829 0  0.03124999999999403 4.906250000000018 0  0.06249999999998725 4.812500000000038 0  0.09374999999998232 4.718750000000053 0  0.1249999999999773 4.625000000000068 0  0.1562499999999684 4.531250000000095 0  0.1874999999999593 4.437500000000123 0  0.2187499999999502 4.343750000000149 0  0.249999999999941 4.250000000000177 0  0.2812499999999318 4.156250000000204 0  0.3124999999999226 4.062500000000232 0  0.3437499999999134 3.96875000000026 0  0.3749999999999041 3.875000000000288 0  0.4062499999998949 3.781250000000315 0  0.4374999999998857 3.687500000000343 0  0.4687499999998764 3.593750000000371 0  0.4999999999998683 3.500000000000395 0  0.5312499999998755 3.406250000000373 0  0.5624999999998839 3.312500000000348 0  0.5937499999998922 3.218750000000323 0  0.6249999999999004 3.125000000000299 0  0.6562499999999087 3.031250000000274 0  0.6874999999999171 2.937500000000249 0  0.7187499999999253 2.843750000000224 0  0.7499999999999336 2.750000000000199 0  0.7812499999999419 2.656250000000174 0  0.8124999999999503 2.562500000000149 0  0.8437499999999586 2.468750000000124 0  0.8749999999999668 2.375000000000099 0  0.906249999999975 2.281250000000075 0  0.9374999999999833 2.18750000000005 0  0.9687499999999917 2.093750000000025 0  1.068965517241714 2.068965517241714 0  1.137931034483429 2.137931034483429 0  1.206896551725143 2.206896551725143 0  1.275862068966714 2.275862068966714 0  1.344827586208045 2.344827586208045 0  1.413793103449377 2.413793103449377 0  1.482758620690708 2.482758620690708 0  1.55172413793204 2.55172413793204 0  1.620689655173371 2.620689655173371 0  1.689655172414702 2.689655172414702 0  1.758620689656034 2.758620689656034 0  1.827586206897365 2.827586206897365 0  1.896551724138697 2.896551724138697 0  1.965517241380028 2.965517241380028 0  2.03448275862136 3.03448275862136 0  2.103448275862691 3.103448275862691 0  2.172413793104023 3.172413793104023 0  2.241379310345354 3.241379310345354 0  2.310344827586686 3.310344827586686 0  2.379310344828017 3.379310344828017 0  2.448275862069349 3.448275862069349 0  2.51724137931068 3.51724137931068 0  2.586206896552011 3.586206896552011 0  2.655172413793343 3.655172413793343 0  2.724137931034674 3.724137931034674 0  2.793103448276006 3.793103448276006 0  2.862068965517337 3.862068965517337 0  2.931034482758669 3.931034482758669 0  3 3.899999999999583 0  3 3.799999999999167 0  3 3.699999999998751 0  3 3.599999999998334 0  3 3.499999999998004 0  3 3.399999999998612 0  3 3.299999999999305 0  3 3.199999999999999 0  3 3.100000000000693 0  3 3.000000000001386 0  3 2.90000000000208 0  3 2.800000000002774 0  3 2.700000000003467 0  3 2.60000000000416 0  3 2.500000000004854 0  3 2.400000000005547 0  3 2.300000000006241 0  3 2.200000000006934 0  3 2.100000000007628 0  3 2.000000000008235 0  3 1.900000000007906 0  3 1.800000000007489 0  3 1.700000000007074 0  3 1.600000000006657 0  3 1.500000000006241 0  3 1.400000000005825 0  3 1.300000000005409 0  3 1.200000000004993 0  3 1.100000000004577 0  3 1.000000000004161 0  3 0.9000000000037449 0  3 0.8000000000033287 0  3 0.7000000000029125 0  3 0.6000000000024963 0  3 0.5000000000020806 0  3 0.4000000000016639 0  3 0.3000000000012486 0  3 0.200000000000832 0  3 0.1000000000004162 0  2.90000000000037 0 0  2.80000000000074 0 0  2.700000000001109 0 0  2.600000000001479 0 0  2.500000000001849 0 0  2.400000000002218 0 0  2.300000000002588 0 0  2.200000000002958 0 0  2.100000000003328 0 0  2.000000000003697 0 0  1.900000000004068 0 0  1.800000000004437 0 0  1.700000000004807 0 0  1.600000000005177 0 0  1.500000000005547 0 0  1.400000000005917 0 0  1.300000000006287 0 0  1.200000000006657 0 0  1.100000000007027 0 0  1.000000000007397 0 0  0.9000000000077666 0 0  0.8000000000081364 0 0  0.7000000000085063 0 0  0.6000000000088765 0 0  0.5000000000092459 0 0  0.4000000000096158 0 0  0.3000000000099861 0 0  0.2000000000103559 0 0  0.1000000000107262 0 0  1.100897151218305e-11 0 0  -0.09999999998927489 0 0  -0.1999999999896458 0 0  -0.2999999999900149 0 0  -0.3999999999903849 0 0  -0.499999999990755 0 0  -0.599999999991125 0 0  -0.6999999999914941 0 0  -0.7999999999918641 0 0  -0.8999999999922341 0 0  -0.9999999999926041 0 0  -1.099999999992973 0 0  -1.199999999993343 0 0  -1.299999999993713 0 0  -1.399999999994083 0 0  -1.499999999994453 0 0  -1.599999999994822 0 0  -1.699999999995192 0 0  -1.799999999995562 0 0  -1.899999999995932 0 0  -1.999999999996302 0 0  -2.099999999996672 0 0  -2.199999999997042 0 0  -2.299999999997412 0 0  -2.399999999997782 0 0  -2.499999999998151 0 0  -2.599999999998521 0 0  -2.699999999998891 0 0  -2.79999999999926 0 0  -2.89999999999963 0 0  -0.05206060309305888 0.08448813113225297 0  -1.094419390385219 1.976460821793024 0  1.094419204737073 1.97646035469586 0  1.849939669662801 0.08448562058327383 0  -1.857597707376619 0.09571089588474266 0  -2.897527329082115 1.249993048974221 0  2.899031146017568 1.250574847001493 0  0.4527055522798108 0.0850156509270005 0  -0.8978345979432741 2.022658397944042 0  -0.5469572574029691 0.1032470489265315 0  1.025272931187474 1.906030078014997 0  1.120206455498782 1.88207091118146 0  0.9307710460223494 1.930829710962822 0  -1.344588677242626 0.08547761816576159 0  -1.025547861611129 1.905690755602286 0  -1.120252427705833 1.882015592156409 0  1.050595841089812 1.811686145207811 0  1.144620550889772 1.786765459067222 0  -1.050639307347461 1.811595159513898 0  -1.144635397627234 1.786742343940175 0  -2.918492332605751 1.650205468884298 0  2.918441606874236 1.650090384295436 0  1.075708053783209 1.717020663607327 0  1.170182358144787 1.692752677314526 0  -0.778192613168754 2.394783564643821 0  -1.075718702981949 1.717003511459659 0  -1.170185634285613 1.692749110336718 0  0.8094443403486319 2.301029219152973 0  -1.50949879952149 2.392181988681588 0  1.509523247153409 2.392206576525042 0  0.8562430046429405 0.08800889288065797 0  1.452986707857891 0.07974197244364774 0  -1.101010547526557 1.622467151998491 0  -1.196015463260538 1.598291884721905 0  -1.013027847523404 1.644229419484129 0  1.101008474095624 1.622469177706342 0  1.19601438632369 1.598292224049584 0  -1.126405313520315 1.527789011042462 0  -1.221182249113661 1.502392865566417 0  -2.913397459621808 0.8499999999980857 0  2.90994366957344 0.8504954502524736 0  0.6926843101807345 2.678574293988195 0  -1.290896133496984 1.573003680604895 0  -1.316045318523121 1.476982169335936 0  -1.385504729068711 1
[...]
<PointData  Scalars="u"> 
<DataArray  type="Float64"  Name="u"  format="ascii">8.1639912408866646e+00  4.3188149391863817e+00  4.1672250236084567e+00  3.4349610482374486e+00  4.1576894062043159e+00  4.3178039979509766e+00  8.1619293304215823e+00  7.6058408944558815e+00  7.0114894915399306e+00  6.4400810761571616e+00  5.9560834388908068e+00  5.6227546798326911e+00  5.5077460995593333e+00  5.6620051943567882e+00  6.1214673815179559e+00  6.9733174656194006e+00  7.7546687110019112e+00  6.7674873142292435e+00  5.7140390395208680e+00  5.0202978798281919e+00  4.6291594214597076e+00  4.4970994901856738e+00  4.5578951084057646e+00  4.7449314876303674e+00  4.9913609594596098e+00  5.2264933912435039e+00  5.4020398563580878e+00  5.4722653971800934e+00  5.4251647771999281e+00  5.2772721156174720e+00  5.0691409891856578e+00  4.8522887037807561e+00  4.6665288477923612e+00  4.5343376336921741e+00  4.4567008594700921e+00  4.4170321138559148e+00  4.3953670377879543e+00  4.3776438278938139e+00  4.3589454053873604e+00  4.3412780248853702e+00  4.3281050952191977e+00  4.3209899852366211e+00  4.3183765964091911e+00  4.3179946452032150e+00  4.3182831996325897e+00  4.3185693676337120e+00  4.3185141267494114e+00  4.3178718385704622e+00  4.3165290496360642e+00  4.3139813859558256e+00  4.3094083833306351e+00  4.3022585404148925e+00  4.2923495798689322e+00  4.2797246460306164e+00  4.2644460841925618e+00  4.2458205316705921e+00  4.2225718091980520e+00  4.1921712385610537e+00  4.1523973206890661e+00  4.1023014871671135e+00  4.0433879288685208e+00  3.9811596381865990e+00  3.9247709303565870e+00  3.8861796660675600e+00  3.8773739175822648e+00  3.9076231902481817e+00  3.9806536436122402e+00  4.0919183331072313e+00  4.2295924966260943e+00  4.3733675147005098e+00  4.4992299953475197e+00  4.5791687293412222e+00  4.5835666699970758e+00  4.4756566116384073e+00  4.3861447068583770e+00  4.4169527687709191e+00  4.3245312685022963e+00  4.1572152559134361e+00  3.9625256054736915e+00  3.7832500083539586e+00  3.6463125825619924e+00  3.5608855941570261e+00  3.5187207157889793e+00  3.5014118592272978e+00  3.4922654021474124e+00  3.4822558899641427e+00  3.4693030268700040e+00  3.4561946738389540e+00  3.4462172475054427e+00  3.4405463159450602e+00  3.4380600397754297e+00  3.4370620338816837e+00  3.4364171785412774e+00  3.4357964532523595e+00  3.4353204277794087e+00  3.4350736323190385e+00  3.4349981102717417e+00  3.4349843690076654e+00  3.4349747686874230e+00  3.4349632269164845e+00  3.4349576564578030e+00  3.4349579519708517e+00  3.4349596279248362e+00  3.4349606023111807e+00  3.4349609232925804e+00  3.4349609234340264e+00  3.4349605671940124e+00  3.4349593375754823e+00  3.4349567973861341e+00  3.4349543538121048e+00  3.4349555298918237e+00  3.4349585154426716e+00  3.4349532549400843e+00  3.4349437856944598e+00  3.4349812889564655e+00  3.4351722449445443e+00  3.4355701078866572e+00  3.4360966258406602e+00  3.4366034020301890e+00  3.4373986305836834e+00  3.4396497068749552e+00  3.4450280315219803e+00  3.4546034282591855e+00  3.4670310945717850e+00  3.4797906303457062e+00  3.4889848997192434e+00  3.4970770566094211e+00  3.5130243136363495e+00  3.5538547894843999e+00  3.6383238345895359e+00  3.7739158049931318e+00  3.9521287444390594e+00  4.1465509847456046e+00  4.3131738978166601e+00  4.4050894330817574e+00  4.3750165254539324e+00  4.4707741029086527e+00  4.5805316356484722e+00  4.5771504312500069e+00  4.4978486861811602e+00  4.3724002831774502e+00  4.2288935030415260e+00  4.0913762369498450e+00  3.9801898514260210e+00  3.9071887153055411e+00  3.8769222665818259e+00  3.8856818215270326e+00  3.9242104960228263e+00  3.9805309798684454e+00  4.0426937902362319e+00  4.1015423460698832e+00  4.1515760339834626e+00  4.1912973278958310e+00  4.2216612515006222e+00  4.2448801025799456e+00  4.2634819784131670e+00  4.2787395004131374e+00  4.2913506260830907e+00  4.3012531319212624e+00  4.3083976402176090e+00  4.3129711505892443e+00  4.3155183454806378e+00  4.3168608641519457e+00  4.3175031809677531e+00  4.3175584317918165e+00  4.3172722063975657e+00  4.3169835308473381e+00  4.3173652158557845e+00  4.3199727147376379e+00  4.3270755961164866e+00  4.3402396367986755e+00  4.3578973734483357e+00  4.3765731850298311e+00  4.3942656268340379e+00  4.4158876177016273e+00  4.4554964590732924e+00  4.5330555348246264e+00  4.6651428451052830e+00  4.8507651648176671e+00  5.0674319356386119e+00  5.2753190367031628e+00  5.4228845589722159e+00  5.4695756093172614e+00  5.3987782414116916e+00  5.2225072853025702e+00  4.9864886572042373e+00  4.7389238798170945e+00  4.5507781790854489e+00  4.4883241864637586e+00  4.6160825150659939e+00  5.0052416462118998e+00  5.6990827865589111e+00  6.7526744392497884e+00  7.7392840423038880e+00  6.9601386857124714e+00  6.1165173418328234e+00  5.6445469752400372e+00  5.4958806791071497e+00  5.6171938989320784e+00  5.9518653882929646e+00  6.4375210050644140e+00  7.0099056641211694e+00  7.6037290810643237e+00  7.6852965837882072e+00  7.2346568460646630e+00  6.7859730903570492e+00  6.3372379368743283e+00  5.8979519619995271e+00  5.4852342367742750e+00  5.1195088106049331e+00  4.8199772351538188e+00  4.6006173511497757e+00  4.4718410478222754e+00  4.4389709460546216e+00  4.4984593430122990e+00  4.6349778127080024e+00  4.8275335630206362e+00  5.0518787886375778e+00  5.2809346697826536e+00  5.4894764139062815e+00  5.6552746313553648e+00  5.7666884491316122e+00  5.8118296832578098e+00  5.7806042282212502e+00  5.6803863999001258e+00  5.5190231753686927e+00  5.3084105013158798e+00  5.0678134627517979e+00  4.8183346737621484e+00  4.5849642110023501e+00  4.3893386537993448e+00  4.2526364018751703e+00  4.1903340736928962e+00  4.2119245658027955e+00  4.3118188967898883e+00  4.4773160218628307e+00  4.6897555446181443e+00  4.9251833478418172e+00  5.1590002633130476e+00  5.3683514947643234e+00  5.5351903998718583e+00  5.6443114150967482e+00  5.6856895678563140e+00  5.6557336514342413e+00  5.5604581601173892e+00  5.4077499581801121e+00  5.2124485143525225e+00  4.9958496349179979e+00  4.7826741934908403e+00  4.6003116600021752e+00  4.4722561703542141e+00  4.4175883712130410e+00  4.4547876900810737e+00  4.5880281089205663e+00  4.8110636680121361e+00  5.1123123899861902e+00  5.4833673338666671e+00  5.8955442397444253e+00  6.3362409238232749e+00  6.7864812159547387e+00  7.2361754212827698e+00  7.6872009108338624e+00  3.7216059524738387e+00  4.0154958620656744e+00  4.0104922464948070e+00  3.9866441798381054e+00  3.8919194655399520e+00  5.1384303379580727e+00  5.1252326009981299e+00  4.5059175994753691e+00  3.9321292447254130e+00  4.5058063503623664e+00  3.7784195990691867e+00  3.6765632689489722e+00  3.7476256582477974e+00  4.8916274278439484e+00  3.7830609193313118e+00  3.6797231759582387e+00  3.5366423162279101e+00  3.4351913551686968e+00  3.5396878624544597e+00  3.4368522929766887e+00  4.4288483890506880e+00  4.4217964762797468e+00  3.3816340845357042e+00  3.2653587668371142e+00  3.8773782449961085e+00  3.3838191302192389e+00  3.2646913689041606e+00  3.9729812251837049e+00  3.9964562540094195e+00  3.9958589979240782e+00  5.3129351506907572e+00  4.7476781875120846e+00  3.3011352021693754e+00  3.1520700260982690e+00  3.3426175140722685e+00  3.3048494366747669e+00  3.1556595720797458e+00  3.3004734781700091e+00  3.1034205499297687e+00  6.3515480245591052e+00  6.3310223332301669e+00  3.5689235901293221e+00  2.8907967364976699e+00  2.7616884858267974e+00  2.5169116941398082e+00  2.2703723763905233e+00  5.0419509610888902e+00  5.0390712173661409e+00  3.3090296449622070e+00  3.3730854783660100e+00  3.1090373066248609e+00  2.8928580645603126e+00  2.7633139493198340e+00  2.5171125377419838e+00  2.2684890353897500e+00  2.0367247604377696e+00  1.6300066244432216e+00  2.0376525278691253e+00  1.6322839426915590e+00  3.3926667899493426e+00  3.5073812570590537e+00  3.4560362797692497e+00  3.5220339823411009e+00  5.2668815416146888e+00  1.4724039096352644e+00  8.5365997719652631e-01  1.4730020492215563e+00  8.5487622013989450e-01  3.8625636858245547e+00  3.8620699529030245e+00  3.7325025565247478e+00  3.5306593651388796e+00  4.4775828485453815e+00  4.4810264185314113e+00  1.1473468545899830e+00  0.0000000000000000e+00  1.1506356685894399e+00  0.0000000000000000e+00  8.7487482375800185e-01  8.7444437649847551e-01  3.9566965000279413e+00  3.5635708175524301e+00  3.4671211746589790e+00  4.1475305084828600e+00  3.5137594411914441e+00  6.8970069094335962e-01  0.0000000000000000e+00  6.8455127491772216e-01  0.0000000000000000e+00  4.7984468888534764e+00  4.7968218872500250e+00  4.2800715075940357e+00  3.3209963728837413e+00  2.7361618015148603e+00  2.2170454948628175e+00  1.9006569759805374e+00  1.1005808034251436e+00  1.1055401723773721e+00  0.0000000000000000e+00  5.3995499331935348e-01  0.0000000000000000e+00  0.0000000000000000e+00  0.0000000000000000e+00  0.0000000000000000e+00  0.0000000000000000e+00  0.0000000000000000e+00  0.0000000000000000e+00  0.0000000000000000e+00  0.0000000000000000e+00  0.0000000000000000e+00  3.4615863757267671e+00  5.4396631944128115e-01  5.5716929446992358e-01  1.3628995309636043e+00  1.0223953644784527e+00  1.0760732344921122e+00  1.4402015525003007e+00  0.0000000000000000e+00  0.0000000000000000e+00  0.0000000000000000e+00  0.0000000000000000e+00  0.0000000000000000e+00  0.0000000000000000e+00  1.5103772746719575e+00  1.7985860822399780e+00  4.0613455511130940e+00  4.0622760369633459e+00  3.4401630456579877e+00  5.2468072452509666e+00  0.0000000000000000e+00  0.0000000000000000e+00  0.0000000000000000e+00  0.0000000000000000e+00  0.0000000000000000e+00  0.0000000000000000e+00  0.0000000000000000e+00  0.0000000000000000e+00  0.0000000000000000e+00  0.0000000000000000e+00  0.0000000000000000e+00  0.0000000000000000e+00  0.0000000000000000e+00  0.0000000000000000e+00  0.0000000000000000e+00  1.2245659197854815e+00  0.0000000000000000e+00  1.8741659753760573e+00  2.1038572479624333e+00  0.0000000000000000e+00  0.0000000000000000e+00  0.0000000000000000e+00  5.3957474018167826e+00  5.3773379940258899e+00  0.0000000000000000e+00  0.0000000000000000e+00  3.4409145085735235e+00  1.4845717561770999e+00  1.0265787573212808e+00  1.4853857905353745e+00  1.0284987859277439e+00  0.0000000000000000e+00  2.1799925848354129e+00  2.3630606756215644e+00  0.0000000000000000e+00  0.0000000000000000e+00  4.4715772067713484e+00  4.4728312458913519e+00  0.0000000000000000e+00  0.0000000000000000e+00  0.0000000000000000e+00  1.5884122219459254e+00  1.2193768224932784e+00  1.7562743053439005e+00  1.4873059598426337e+00  1.9818165724712755e+00  1.8081270903237916e+00  2.2379572110244674e+00  2.1407915637715678e+00  1.5903088866934292e+00  1.2224422529809307e+00  1.7589007388919675e+00  1.4909733596250632e+00  1.9844457233290342e+00  1.8111729697135348e+00  2.2402488183332281e+00  2.1430420854674206e+00  4.9819861445675402e+00  5.4082277609212328e+00  5.9891233782584319e+00  6.3409684933491173e+00  6.3304132516584648e+00  2.5047019005313831e+00  2.5064663230294522e+00  0.0000000000000000e+00  0.0000000000000000e+00  2.4693431364606253e+00  2.1221240600807429e+00  2.7705205211109671e+00  2.4678091152257493e+00  2.1215422844925498e+00  2.7693918598867366e+00  2.4373083737550778e+00  2.5820808252932070e+00  0.0000000000000000e+00  0.0000000000000000e+00  5.6443168368268708e+00  5.6224266455455156e+00  2.2987624286745505e+00  3.4358509108252444e+00  2.0778852789521101e+00  0.0000000000000000e+00  0.0000000000000000e+00  2.6534090751349222e+00  2.7659665386182288e+00  0.0000000000000000e+00  0.0000000000000000e+00  4.2006304322625230e+00  4.2015386643777042e+00  0.0000000000000000e+00  0.0000000000000000e+00  2.8335971577740460e+00  2.9188058723637318e+00  2.8803561421947554e+00  3.0066686440713486e+00  2.7801132724273803e+00  3.0255871619358676e+00  2.7791747294189753e+00  3.0250572032666492e+00  0.0000000000000000e+00  1.4308917523029303e+00  0.0000000000000000e+00  2.9606302688495467e+00  2.0472069269933022e+00  3.8094239768083415e+00  2.9498264930322455e+00  4.2896764494949240e+00  3.5220398156360457e+00  4.4179521767330376e+00  2.4921095496969459e+00  4.9640009126105573e+00  4.9771967802604307e+00  4.6606255167382749e+00  0.0000000000000000e+00  3.0441789857966377e+00  3.1097036408124263e+00  3.4355492074343772e+00  1.2782396286820061e+00  3.0724380441786838e+00  3.2665654314568529e+00  3.0722465270682195e+00  3.2665370099314224e+00  0.0000000000000000e+00  0.0000000000000000e+00  0.0000000000000000e+00  0.0000000000000000e+00  0.0000000000000000e+00  0.0000000000000000e+00  5.6826531498488384e+00  5.6780437110931574e+00  0.0000000000000000e+00  0.0000000000000000e+00  2.9930448677687398e+00  4.2127261167733669e+00  4.2111768081980534e+00  4.3250414987455521e+00  3.8158376552243336e+00  3.1398712264323811e+00  2.3827751905527230e+00  4.3661253278615124e+00  4.3672126924369854e+00  1.6855349544788532e+00  9.8954269707314557e-01  3.1453606445906122e+00  3.1924737418484317e+00  3.3424597558796290e+00  3.4900272387629356e+00  3.1723333337538451e+00  3.3427405803452390e+00  3.4903897641595938e+00  3.1728840371923739e+00  5.3851729458177484e+00  5.0632330565277028e+00  3.0281142949252935e+00  3.0287988342726684e+00  2.3940061952190792e+00  2.3957824672404366e+00  3.7855866580181434e+00  3.1604566764855551e+00  0.0000000000000000e+00  0.0000000000000000e+00  3.4350527267169562e+00  3.2254272648187334e+00  3.2578489308471346e+00  3.2408970957057863e+00  3.2923464085906509e+00  3.3085534017336160e+00  3.3323009393292180e+00  3.5896297452257575e+00  3.6949492418528731e+00  3.5903055582950718e+00  3.6956253043936256e+00  0.0000000000000000e+00  3.2768828001129355e+00  1.2668529294292636e+00  3.6154775944842967e+00  3.7839349419602497e+00  3.6150326714974423e+00  3.7832578756405604e+00  6.3984480415154659e+00  3.1978693981974695e+00  3.2879958126499575e+00  0.0000000000000000e+00  0.0000000000000000e+00  0.0000000000000000e+00  0.0000000000000000e+00  5.9724709678766201e+00  5.4330174422490396e+00  4.7617250888066120e+00  4.8988553765713334e+00  4.4492207289978154e+00  4.3583722324870147e+00  4.1454138841244257e+00  3.8754763863770232e+00  1.9964753893918512e+00  1.5187107080591014e+00  3.0329202242720874e+00  2.4856313364801266e+00  1.2187333490250905e+00  3.3825856794251576e+00  2.7151680626145915e+00  3.8599503483450630e+00  2.2771611795607427e+00  1.8743328557237007e+00  1.1446903653845137e+00  9.3319481923470526e-01  0.0000000000000000e+00  0.0000000000000000e+00  0.0000000000000000e+00  4.2727494667353279e+00  4.2737231945600271e+00  6.1955375344893380e+00  6.3741893208692337e+00  0.0000000000000000e+00  0.0000000000000000e+00  3.3471458152925861e+00  3.3628342660746577e+00  3.7199947190085880e+00  3.8573562186565868e+00  3.9350202704270960e+00  3.9805436487447952e+00  3.7194818242562486e+00  3.8566629472946268e+00  3.9341662803653725e+00  3.9797104746399929e+00  0.0000000000000000e+00  0.0000000000000000e+00  1.3188677161797144e+00  2.3055000460444064e+00  0.0000000000000000e+00  0.0000000000000000e+00  0.0000000000000000e+00  1.3178701173040013e+00  0.0000000000000000e+00  3.4349644214618098e+00  3.5031217086859492e+00  3.5048871361174090e+00  1.7056194028413900e+00  8.7608439464014065e-01  2.2297924349486187e+00  1.8859691520143587e+00  4.0052919977244184e+00  3.3646370407451909e+00  3.4923396071969606e+00  2.8920779065543498e+00  1.2189377694242214e+00  2.3050226075491853e+00  3.6471711858336437e+00  4.0652410579946281e+00  4.0865193205739816e+00  4.0662219499395817e+00  4.0874566458657986e+00  3.8064974169580061e+00  3.6859200471180533e+00  3.8059264503627603e+00  3.6855181438390803e+00  1.2734762135198057e+00  1.6952155147596912e+00  2.1790843688602948e+00  2.0442310012795106e+00  2.4339359807111012e+00  2.3444783281168711e+00  0.0000000000000000e+00  0.0000000000000000e+00  3.3759576350145490e+00  3.3857515636441065e+00  3.3794066154805620e+00  3.3966985408258892e+00  3.4025933646569859e+00  3.4094351645292802e+00  3.4075846562998042e+00  3.4165403940417716e+00  1.6927260207760764e+00  9.2677603039778500e-01  2.7710086244202232e+00  1.9040188100375155e+00  0.0000000000000000e+00  3.3689497349081572e+00  3.4185595344917843e+00  3.4229452995687235e+00  3.3732143073912497e+00  1.1445029943013889e+00  0.0000000000000000e+00  3.1145085673247883e+00  2.7184487566030788e+00  1.9809968921554708e+00  2.3568512109072435e+00  1.5488325313358380e+00  2.0536816794248263e+00  1.1734104423376674e+00  4.3275933079534745e+00  4.3286385170536184e+00  4.0221162875849465e+00  6.9117211484247931e-01  0.0000000000000000e+00  0.0000000000000000e+00  0.0000000000000000e+00  2.7688663179001969e+00  2.0671147059219264e+00  2.0685986609486102e+00  0.0000000000000000e+00  5.0341917929488371e+00  5.0427372835040956e+00  5.0406766857294754e+00  4.3811130327251098e+00  3.7688750468797370e+00  5.1738770975019088e+00  4.2577830019258833e+00  4.2715755154759156e+00  4.7318441937099394e+00  4.7266334399917538e+00  4.3880676775945666e+00  2.7547020151303800e+00  7.1992625768392182e+00  7.2113570790253751e+00  2.5452865714033668e+00  4.0379756047408302e+00  5.9470258130647133e+00  5.9532638728997087e+00  4.0580944676363107e+00  3.6566729933896016e+00  3.7512368789402957e+00  3.4349535278434997e+00  3.4911417087818308e+00  3.8129152431145581e+00  3.8138733553517943e+00  0.0000000000000000e+00  0.0000000000000000e+00  0.0000000000000000e+00  0.0000000000000000e+00  0.0000000000000000e+00  0.0000000000000000e+00  7.6011566171463929e-01  0.0000000000000000e+00  1.0709342791726866e+00  0.0000000000000000e+00  5.7128106132756740e-01  1.3903927594252210e+00  1.9200570515157405e+00  2.1076230899309962e+00  3.8747854628149945e+00  2.5871322813535991e+00  0.0000000000000000e+00  3.8752543544258744e+00  1.4490658097337938e+00  0.0000000000000000e+00  3.1310401003090691e+00  6.0586733138583400e+00  5.4714477080535655e+00  1.2955535446279769e+00  3.7331004147150759e+00  3.7320281681736049e+00  0.0000000000000000e+00  0.0000000000000000e+00  0.0000000000000000e+00  0.0000000000000000e+00  0.0000000000000000e+00  6.0583000132991804e-01  9.0904530191907029e-01  0.0000000000000000e+00  4.2085665178487339e+00  4.0944937199646780e+00  4.1417890568448144e+00  0.0000000000000000e+00  5.6607784538420269e-01  9.6256387060884852e-01  1.3821141971663065e+00  1.0652210305006933e+00  1.7000732848299498e+00  2.0983183967133767e+00  0.0000000000000000e+00  4.1691380031724830e+00  4.1740358455882758e+00  4.1054062011399788e+00  4.1774795871812396e+00  4.1701786518288344e+00  4.1750430106246252e+00  4.1063145339282148e+00  4.1784524017128186e+00  3.4527848001866093e+00  2.3197666826196270e+00  3.2347876697085818e+00  0.0000000000000000e+00  3.9448404161310537e+00  3.9442427156343829e+00  3.6012608161839634e+00  2.7602153167108896e+00  4.1878275309585344e+00  4.1889461663499574e+00  0.0000000000000000e+00  3.4844414018452494e+00  3.4248744731346275e+00  3.4273906428663206e+00  2.6697047317025957e+00  2.6117799390759542e+00  1.4053623131829827e+00  2.5773972697957772e+00  2.5738814932972809e+00  3.2847942516840369e+00  3.2840127152414027e+00  1.5170147742551232e+00  1.8873610352043042e+00  2.2844201249189644e+00  4.9907764902143636e+00  3.4760288269560928e+00  2.7889082223902597e+00  4.0306996193054001e+00  4.0669155610079626e+00  3.1507315471178656e+00  2.6063668157188391e+00  2.0226492554045907e+00  2.6952825520144144e+00  2.8469936433875840e+00  2.5898596027634699e+00  3.4229267379931985e+00  2.3562789341371246e+00  2.0782966232768456e+00  1.7057796495770223e+00  3.9709422995446895e+00  3.9183388278950151e+00  3.9722999414163822e+00  3.9198742622901319e+00  2.5981900307526447e+00  2.7047383515512458e+00  3.4349138842201761e+00  3.1132166232343494e+00  3.9434851537351188e+00  3.6047785115593518e+00  3.5667663074084532e+00  1.1836076677307956e+00  4.1248018052775075e+00  4.1846952251271672e+00  4.2350979152059978e+00  4.2322759459415380e+00  4.1239088547171283e+00  4.1837505824634054e+00  4.2340824299216351e+00  4.2312943673157983e+00  1.9940677221693086e+00  1